<?xml version="1.0" encoding="ISO-8859-1"?>
<modeling>
 <generator>
  <i name="program" type="string">vasp </i>
  <i name="version" type="string">5.3.3  </i>
  <i name="subversion" type="string">18Dez12 (build Oct 02 2015 10:56:41) complex                          parallel </i>
  <i name="platform" type="string">LinuxIFC </i>
  <i name="date" type="string">2020 05 27 </i>
  <i name="time" type="string">12:42:29 </i>
 </generator>
 <incar>
  <i type="int" name="ISTART">     1</i>
  <i type="string" name="PREC">normal</i>
  <i type="string" name="ALGO"> Normal</i>
  <i type="int" name="ISPIN">     1</i>
  <i name="AMIX">      0.20000000</i>
  <i type="int" name="ICHARG">     1</i>
  <i type="int" name="IBRION">     2</i>
  <i name="EDIFF">      0.00000100</i>
  <i name="EDIFFG">     -0.05000000</i>
  <i type="int" name="NSW">     0</i>
  <i type="int" name="ISIF">     2</i>
  <i type="int" name="ISYM">     2</i>
  <i name="ENCUT">    500.00000000</i>
  <i type="int" name="NEDOS">  2000</i>
  <i type="logical" name="LREAL"> F  </i>
  <i type="int" name="ISMEAR">    -5</i>
  <i name="SIGMA">      0.05000000</i>
  <i type="logical" name="LWAVE"> T  </i>
  <i type="logical" name="LCHARG"> T  </i>
  <i type="logical" name="LORBIT"> F  </i>
 </incar>
 <kpoints>
  <generation param="Gamma">
   <v type="int" name="divisions">      24       24       24 </v>
   <v name="usershift">      0.00000000       0.00000000       0.00000000 </v>
   <v name="genvec1">      0.04166667      -0.00000000       0.00000000 </v>
   <v name="genvec2">      0.00000000       0.04166667       0.00000000 </v>
   <v name="genvec3">      0.00000000       0.00000000       0.04166667 </v>
   <v name="shift">      0.00000000       0.00000000       0.00000000 </v>
  </generation>
  <varray name="kpointlist" >
   <v>       0.00000000       0.00000000       0.00000000 </v>
   <v>       0.04166667       0.00000000       0.00000000 </v>
   <v>       0.08333333       0.00000000       0.00000000 </v>
   <v>       0.12500000       0.00000000       0.00000000 </v>
   <v>       0.16666667       0.00000000       0.00000000 </v>
   <v>       0.20833333      -0.00000000       0.00000000 </v>
   <v>       0.25000000       0.00000000       0.00000000 </v>
   <v>       0.29166667       0.00000000       0.00000000 </v>
   <v>       0.33333333       0.00000000       0.00000000 </v>
   <v>       0.37500000       0.00000000       0.00000000 </v>
   <v>       0.41666667       0.00000000       0.00000000 </v>
   <v>       0.45833333       0.00000000       0.00000000 </v>
   <v>       0.50000000       0.00000000       0.00000000 </v>
   <v>       0.04166667       0.04166667       0.00000000 </v>
   <v>       0.08333333       0.04166667       0.00000000 </v>
   <v>       0.12500000       0.04166667       0.00000000 </v>
   <v>       0.16666667       0.04166667       0.00000000 </v>
   <v>       0.20833333       0.04166667       0.00000000 </v>
   <v>       0.25000000       0.04166667       0.00000000 </v>
   <v>       0.29166667       0.04166667       0.00000000 </v>
   <v>       0.33333333       0.04166667       0.00000000 </v>
   <v>       0.37500000       0.04166667       0.00000000 </v>
   <v>       0.41666667       0.04166667       0.00000000 </v>
   <v>       0.45833333       0.04166667       0.00000000 </v>
   <v>       0.50000000       0.04166667       0.00000000 </v>
   <v>      -0.45833333       0.04166667       0.00000000 </v>
   <v>      -0.41666667       0.04166667       0.00000000 </v>
   <v>      -0.37500000       0.04166667       0.00000000 </v>
   <v>      -0.33333333       0.04166667       0.00000000 </v>
   <v>      -0.29166667       0.04166667       0.00000000 </v>
   <v>      -0.25000000       0.04166667       0.00000000 </v>
   <v>      -0.20833333       0.04166667       0.00000000 </v>
   <v>      -0.16666667       0.04166667       0.00000000 </v>
   <v>      -0.12500000       0.04166667       0.00000000 </v>
   <v>      -0.08333333       0.04166667       0.00000000 </v>
   <v>      -0.04166667       0.04166667       0.00000000 </v>
   <v>       0.08333333       0.08333333       0.00000000 </v>
   <v>       0.12500000       0.08333333       0.00000000 </v>
   <v>       0.16666667       0.08333333       0.00000000 </v>
   <v>       0.20833333       0.08333333       0.00000000 </v>
   <v>       0.25000000       0.08333333       0.00000000 </v>
   <v>       0.29166667       0.08333333       0.00000000 </v>
   <v>       0.33333333       0.08333333       0.00000000 </v>
   <v>       0.37500000       0.08333333       0.00000000 </v>
   <v>       0.41666667       0.08333333       0.00000000 </v>
   <v>       0.45833333       0.08333333       0.00000000 </v>
   <v>       0.50000000       0.08333333       0.00000000 </v>
   <v>      -0.45833333       0.08333333       0.00000000 </v>
   <v>      -0.41666667       0.08333333       0.00000000 </v>
   <v>      -0.37500000       0.08333333       0.00000000 </v>
   <v>      -0.33333333       0.08333333       0.00000000 </v>
   <v>      -0.29166667       0.08333333       0.00000000 </v>
   <v>      -0.25000000       0.08333333       0.00000000 </v>
   <v>      -0.20833333       0.08333333       0.00000000 </v>
   <v>      -0.16666667       0.08333333       0.00000000 </v>
   <v>      -0.12500000       0.08333333       0.00000000 </v>
   <v>      -0.08333333       0.08333333       0.00000000 </v>
   <v>       0.12500000       0.12500000       0.00000000 </v>
   <v>       0.16666667       0.12500000       0.00000000 </v>
   <v>       0.20833333       0.12500000       0.00000000 </v>
   <v>       0.25000000       0.12500000       0.00000000 </v>
   <v>       0.29166667       0.12500000       0.00000000 </v>
   <v>       0.33333333       0.12500000       0.00000000 </v>
   <v>       0.37500000       0.12500000       0.00000000 </v>
   <v>       0.41666667       0.12500000       0.00000000 </v>
   <v>       0.45833333       0.12500000       0.00000000 </v>
   <v>       0.50000000       0.12500000       0.00000000 </v>
   <v>      -0.45833333       0.12500000       0.00000000 </v>
   <v>      -0.41666667       0.12500000       0.00000000 </v>
   <v>      -0.37500000       0.12500000       0.00000000 </v>
   <v>      -0.33333333       0.12500000       0.00000000 </v>
   <v>      -0.29166667       0.12500000       0.00000000 </v>
   <v>      -0.25000000       0.12500000       0.00000000 </v>
   <v>      -0.20833333       0.12500000       0.00000000 </v>
   <v>      -0.16666667       0.12500000       0.00000000 </v>
   <v>      -0.12500000       0.12500000       0.00000000 </v>
   <v>       0.16666667       0.16666667       0.00000000 </v>
   <v>       0.20833333       0.16666667       0.00000000 </v>
   <v>       0.25000000       0.16666667       0.00000000 </v>
   <v>       0.29166667       0.16666667       0.00000000 </v>
   <v>       0.33333333       0.16666667       0.00000000 </v>
   <v>       0.37500000       0.16666667       0.00000000 </v>
   <v>       0.41666667       0.16666667       0.00000000 </v>
   <v>       0.45833333       0.16666667       0.00000000 </v>
   <v>       0.50000000       0.16666667       0.00000000 </v>
   <v>      -0.45833333       0.16666667       0.00000000 </v>
   <v>      -0.41666667       0.16666667       0.00000000 </v>
   <v>      -0.37500000       0.16666667       0.00000000 </v>
   <v>      -0.33333333       0.16666667       0.00000000 </v>
   <v>      -0.29166667       0.16666667       0.00000000 </v>
   <v>      -0.25000000       0.16666667       0.00000000 </v>
   <v>      -0.20833333       0.16666667       0.00000000 </v>
   <v>      -0.16666667       0.16666667       0.00000000 </v>
   <v>       0.20833333       0.20833333       0.00000000 </v>
   <v>       0.25000000       0.20833333       0.00000000 </v>
   <v>       0.29166667       0.20833333       0.00000000 </v>
   <v>       0.33333333       0.20833333       0.00000000 </v>
   <v>       0.37500000       0.20833333       0.00000000 </v>
   <v>       0.41666667       0.20833333       0.00000000 </v>
   <v>       0.45833333       0.20833333       0.00000000 </v>
   <v>       0.50000000       0.20833333       0.00000000 </v>
   <v>      -0.45833333       0.20833333       0.00000000 </v>
   <v>      -0.41666667       0.20833333       0.00000000 </v>
   <v>      -0.37500000       0.20833333       0.00000000 </v>
   <v>      -0.33333333       0.20833333       0.00000000 </v>
   <v>      -0.29166667       0.20833333       0.00000000 </v>
   <v>      -0.25000000       0.20833333       0.00000000 </v>
   <v>      -0.20833333       0.20833333       0.00000000 </v>
   <v>       0.25000000       0.25000000       0.00000000 </v>
   <v>       0.29166667       0.25000000       0.00000000 </v>
   <v>       0.33333333       0.25000000       0.00000000 </v>
   <v>       0.37500000       0.25000000       0.00000000 </v>
   <v>       0.41666667       0.25000000       0.00000000 </v>
   <v>       0.45833333       0.25000000       0.00000000 </v>
   <v>       0.50000000       0.25000000       0.00000000 </v>
   <v>      -0.45833333       0.25000000       0.00000000 </v>
   <v>      -0.41666667       0.25000000       0.00000000 </v>
   <v>      -0.37500000       0.25000000       0.00000000 </v>
   <v>      -0.33333333       0.25000000       0.00000000 </v>
   <v>      -0.29166667       0.25000000       0.00000000 </v>
   <v>      -0.25000000       0.25000000       0.00000000 </v>
   <v>       0.29166667       0.29166667       0.00000000 </v>
   <v>       0.33333333       0.29166667       0.00000000 </v>
   <v>       0.37500000       0.29166667       0.00000000 </v>
   <v>       0.41666667       0.29166667       0.00000000 </v>
   <v>       0.45833333       0.29166667       0.00000000 </v>
   <v>       0.50000000       0.29166667       0.00000000 </v>
   <v>      -0.45833333       0.29166667       0.00000000 </v>
   <v>      -0.41666667       0.29166667       0.00000000 </v>
   <v>      -0.37500000       0.29166667       0.00000000 </v>
   <v>      -0.33333333       0.29166667       0.00000000 </v>
   <v>      -0.29166667       0.29166667       0.00000000 </v>
   <v>       0.33333333       0.33333333       0.00000000 </v>
   <v>       0.37500000       0.33333333       0.00000000 </v>
   <v>       0.41666667       0.33333333       0.00000000 </v>
   <v>       0.45833333       0.33333333       0.00000000 </v>
   <v>       0.50000000       0.33333333       0.00000000 </v>
   <v>      -0.45833333       0.33333333       0.00000000 </v>
   <v>      -0.41666667       0.33333333       0.00000000 </v>
   <v>      -0.37500000       0.33333333       0.00000000 </v>
   <v>      -0.33333333       0.33333333       0.00000000 </v>
   <v>       0.37500000       0.37500000       0.00000000 </v>
   <v>       0.41666667       0.37500000       0.00000000 </v>
   <v>       0.45833333       0.37500000       0.00000000 </v>
   <v>       0.50000000       0.37500000       0.00000000 </v>
   <v>      -0.45833333       0.37500000       0.00000000 </v>
   <v>      -0.41666667       0.37500000       0.00000000 </v>
   <v>      -0.37500000       0.37500000       0.00000000 </v>
   <v>       0.41666667       0.41666667       0.00000000 </v>
   <v>       0.45833333       0.41666667       0.00000000 </v>
   <v>       0.50000000       0.41666667       0.00000000 </v>
   <v>      -0.45833333       0.41666667       0.00000000 </v>
   <v>      -0.41666667       0.41666667       0.00000000 </v>
   <v>       0.45833333       0.45833333       0.00000000 </v>
   <v>       0.50000000       0.45833333       0.00000000 </v>
   <v>      -0.45833333       0.45833333       0.00000000 </v>
   <v>       0.50000000       0.50000000       0.00000000 </v>
   <v>       0.12500000       0.08333333       0.04166667 </v>
   <v>       0.16666667       0.08333333       0.04166667 </v>
   <v>       0.20833333       0.08333333       0.04166667 </v>
   <v>       0.25000000       0.08333333       0.04166667 </v>
   <v>       0.29166667       0.08333333       0.04166667 </v>
   <v>       0.33333333       0.08333333       0.04166667 </v>
   <v>       0.37500000       0.08333333       0.04166667 </v>
   <v>       0.41666667       0.08333333       0.04166667 </v>
   <v>       0.45833333       0.08333333       0.04166667 </v>
   <v>       0.50000000       0.08333333       0.04166667 </v>
   <v>      -0.45833333       0.08333333       0.04166667 </v>
   <v>       0.16666667       0.12500000       0.04166667 </v>
   <v>       0.20833333       0.12500000       0.04166667 </v>
   <v>       0.25000000       0.12500000       0.04166667 </v>
   <v>       0.29166667       0.12500000       0.04166667 </v>
   <v>       0.33333333       0.12500000       0.04166667 </v>
   <v>       0.37500000       0.12500000       0.04166667 </v>
   <v>       0.41666667       0.12500000       0.04166667 </v>
   <v>       0.45833333       0.12500000       0.04166667 </v>
   <v>       0.50000000       0.12500000       0.04166667 </v>
   <v>      -0.45833333       0.12500000       0.04166667 </v>
   <v>      -0.41666667       0.12500000       0.04166667 </v>
   <v>      -0.37500000       0.12500000       0.04166667 </v>
   <v>      -0.33333333       0.12500000       0.04166667 </v>
   <v>      -0.29166667       0.12500000       0.04166667 </v>
   <v>      -0.25000000       0.12500000       0.04166667 </v>
   <v>      -0.20833333       0.12500000       0.04166667 </v>
   <v>      -0.16666667       0.12500000       0.04166667 </v>
   <v>      -0.12500000       0.12500000       0.04166667 </v>
   <v>      -0.08333333       0.12500000       0.04166667 </v>
   <v>       0.20833333       0.16666667       0.04166667 </v>
   <v>       0.25000000       0.16666667       0.04166667 </v>
   <v>       0.29166667       0.16666667       0.04166667 </v>
   <v>       0.33333333       0.16666667       0.04166667 </v>
   <v>       0.37500000       0.16666667       0.04166667 </v>
   <v>       0.41666667       0.16666667       0.04166667 </v>
   <v>       0.45833333       0.16666667       0.04166667 </v>
   <v>       0.50000000       0.16666667       0.04166667 </v>
   <v>      -0.45833333       0.16666667       0.04166667 </v>
   <v>      -0.41666667       0.16666667       0.04166667 </v>
   <v>      -0.37500000       0.16666667       0.04166667 </v>
   <v>      -0.33333333       0.16666667       0.04166667 </v>
   <v>      -0.29166667       0.16666667       0.04166667 </v>
   <v>      -0.25000000       0.16666667       0.04166667 </v>
   <v>      -0.20833333       0.16666667       0.04166667 </v>
   <v>      -0.16666667       0.16666667       0.04166667 </v>
   <v>      -0.12500000       0.16666667       0.04166667 </v>
   <v>       0.25000000       0.20833333       0.04166667 </v>
   <v>       0.29166667       0.20833333       0.04166667 </v>
   <v>       0.33333333       0.20833333       0.04166667 </v>
   <v>       0.37500000       0.20833333       0.04166667 </v>
   <v>       0.41666667       0.20833333       0.04166667 </v>
   <v>       0.45833333       0.20833333       0.04166667 </v>
   <v>       0.50000000       0.20833333       0.04166667 </v>
   <v>      -0.45833333       0.20833333       0.04166667 </v>
   <v>      -0.41666667       0.20833333       0.04166667 </v>
   <v>      -0.37500000       0.20833333       0.04166667 </v>
   <v>      -0.33333333       0.20833333       0.04166667 </v>
   <v>      -0.29166667       0.20833333       0.04166667 </v>
   <v>      -0.25000000       0.20833333       0.04166667 </v>
   <v>      -0.20833333       0.20833333       0.04166667 </v>
   <v>      -0.16666667       0.20833333       0.04166667 </v>
   <v>       0.29166667       0.25000000       0.04166667 </v>
   <v>       0.33333333       0.25000000       0.04166667 </v>
   <v>       0.37500000       0.25000000       0.04166667 </v>
   <v>       0.41666667       0.25000000       0.04166667 </v>
   <v>       0.45833333       0.25000000       0.04166667 </v>
   <v>       0.50000000       0.25000000       0.04166667 </v>
   <v>      -0.45833333       0.25000000       0.04166667 </v>
   <v>      -0.41666667       0.25000000       0.04166667 </v>
   <v>      -0.37500000       0.25000000       0.04166667 </v>
   <v>      -0.33333333       0.25000000       0.04166667 </v>
   <v>      -0.29166667       0.25000000       0.04166667 </v>
   <v>      -0.25000000       0.25000000       0.04166667 </v>
   <v>      -0.20833333       0.25000000       0.04166667 </v>
   <v>       0.33333333       0.29166667       0.04166667 </v>
   <v>       0.37500000       0.29166667       0.04166667 </v>
   <v>       0.41666667       0.29166667       0.04166667 </v>
   <v>       0.45833333       0.29166667       0.04166667 </v>
   <v>       0.50000000       0.29166667       0.04166667 </v>
   <v>      -0.45833333       0.29166667       0.04166667 </v>
   <v>      -0.41666667       0.29166667       0.04166667 </v>
   <v>      -0.37500000       0.29166667       0.04166667 </v>
   <v>      -0.33333333       0.29166667       0.04166667 </v>
   <v>      -0.29166667       0.29166667       0.04166667 </v>
   <v>      -0.25000000       0.29166667       0.04166667 </v>
   <v>       0.37500000       0.33333333       0.04166667 </v>
   <v>       0.41666667       0.33333333       0.04166667 </v>
   <v>       0.45833333       0.33333333       0.04166667 </v>
   <v>       0.50000000       0.33333333       0.04166667 </v>
   <v>      -0.45833333       0.33333333       0.04166667 </v>
   <v>      -0.41666667       0.33333333       0.04166667 </v>
   <v>      -0.37500000       0.33333333       0.04166667 </v>
   <v>      -0.33333333       0.33333333       0.04166667 </v>
   <v>      -0.29166667       0.33333333       0.04166667 </v>
   <v>       0.41666667       0.37500000       0.04166667 </v>
   <v>       0.45833333       0.37500000       0.04166667 </v>
   <v>       0.50000000       0.37500000       0.04166667 </v>
   <v>      -0.45833333       0.37500000       0.04166667 </v>
   <v>      -0.41666667       0.37500000       0.04166667 </v>
   <v>      -0.37500000       0.37500000       0.04166667 </v>
   <v>      -0.33333333       0.37500000       0.04166667 </v>
   <v>       0.45833333       0.41666667       0.04166667 </v>
   <v>       0.50000000       0.41666667       0.04166667 </v>
   <v>      -0.45833333       0.41666667       0.04166667 </v>
   <v>      -0.41666667       0.41666667       0.04166667 </v>
   <v>      -0.37500000       0.41666667       0.04166667 </v>
   <v>       0.50000000       0.45833333       0.04166667 </v>
   <v>      -0.45833333       0.45833333       0.04166667 </v>
   <v>      -0.41666667       0.45833333       0.04166667 </v>
   <v>      -0.45833333       0.50000000       0.04166667 </v>
   <v>       0.25000000       0.16666667       0.08333333 </v>
   <v>       0.29166667       0.16666667       0.08333333 </v>
   <v>       0.33333333       0.16666667       0.08333333 </v>
   <v>       0.37500000       0.16666667       0.08333333 </v>
   <v>       0.41666667       0.16666667       0.08333333 </v>
   <v>       0.45833333       0.16666667       0.08333333 </v>
   <v>       0.50000000       0.16666667       0.08333333 </v>
   <v>      -0.45833333       0.16666667       0.08333333 </v>
   <v>      -0.41666667       0.16666667       0.08333333 </v>
   <v>       0.29166667       0.20833333       0.08333333 </v>
   <v>       0.33333333       0.20833333       0.08333333 </v>
   <v>       0.37500000       0.20833333       0.08333333 </v>
   <v>       0.41666667       0.20833333       0.08333333 </v>
   <v>       0.45833333       0.20833333       0.08333333 </v>
   <v>       0.50000000       0.20833333       0.08333333 </v>
   <v>      -0.45833333       0.20833333       0.08333333 </v>
   <v>      -0.41666667       0.20833333       0.08333333 </v>
   <v>      -0.37500000       0.20833333       0.08333333 </v>
   <v>      -0.33333333       0.20833333       0.08333333 </v>
   <v>      -0.29166667       0.20833333       0.08333333 </v>
   <v>      -0.25000000       0.20833333       0.08333333 </v>
   <v>      -0.20833333       0.20833333       0.08333333 </v>
   <v>      -0.16666667       0.20833333       0.08333333 </v>
   <v>      -0.12500000       0.20833333       0.08333333 </v>
   <v>       0.33333333       0.25000000       0.08333333 </v>
   <v>       0.37500000       0.25000000       0.08333333 </v>
   <v>       0.41666667       0.25000000       0.08333333 </v>
   <v>       0.45833333       0.25000000       0.08333333 </v>
   <v>       0.50000000       0.25000000       0.08333333 </v>
   <v>      -0.45833333       0.25000000       0.08333333 </v>
   <v>      -0.41666667       0.25000000       0.08333333 </v>
   <v>      -0.37500000       0.25000000       0.08333333 </v>
   <v>      -0.33333333       0.25000000       0.08333333 </v>
   <v>      -0.29166667       0.25000000       0.08333333 </v>
   <v>      -0.25000000       0.25000000       0.08333333 </v>
   <v>      -0.20833333       0.25000000       0.08333333 </v>
   <v>      -0.16666667       0.25000000       0.08333333 </v>
   <v>       0.37500000       0.29166667       0.08333333 </v>
   <v>       0.41666667       0.29166667       0.08333333 </v>
   <v>       0.45833333       0.29166667       0.08333333 </v>
   <v>       0.50000000       0.29166667       0.08333333 </v>
   <v>      -0.45833333       0.29166667       0.08333333 </v>
   <v>      -0.41666667       0.29166667       0.08333333 </v>
   <v>      -0.37500000       0.29166667       0.08333333 </v>
   <v>      -0.33333333       0.29166667       0.08333333 </v>
   <v>      -0.29166667       0.29166667       0.08333333 </v>
   <v>      -0.25000000       0.29166667       0.08333333 </v>
   <v>      -0.20833333       0.29166667       0.08333333 </v>
   <v>       0.41666667       0.33333333       0.08333333 </v>
   <v>       0.45833333       0.33333333       0.08333333 </v>
   <v>       0.50000000       0.33333333       0.08333333 </v>
   <v>      -0.45833333       0.33333333       0.08333333 </v>
   <v>      -0.41666667       0.33333333       0.08333333 </v>
   <v>      -0.37500000       0.33333333       0.08333333 </v>
   <v>      -0.33333333       0.33333333       0.08333333 </v>
   <v>      -0.29166667       0.33333333       0.08333333 </v>
   <v>      -0.25000000       0.33333333       0.08333333 </v>
   <v>       0.45833333       0.37500000       0.08333333 </v>
   <v>       0.50000000       0.37500000       0.08333333 </v>
   <v>      -0.45833333       0.37500000       0.08333333 </v>
   <v>      -0.41666667       0.37500000       0.08333333 </v>
   <v>      -0.37500000       0.37500000       0.08333333 </v>
   <v>      -0.33333333       0.37500000       0.08333333 </v>
   <v>      -0.29166667       0.37500000       0.08333333 </v>
   <v>       0.50000000       0.41666667       0.08333333 </v>
   <v>      -0.45833333       0.41666667       0.08333333 </v>
   <v>      -0.41666667       0.41666667       0.08333333 </v>
   <v>      -0.37500000       0.41666667       0.08333333 </v>
   <v>      -0.33333333       0.41666667       0.08333333 </v>
   <v>      -0.45833333       0.45833333       0.08333333 </v>
   <v>      -0.41666667       0.45833333       0.08333333 </v>
   <v>      -0.37500000       0.45833333       0.08333333 </v>
   <v>      -0.41666667       0.50000000       0.08333333 </v>
   <v>       0.37500000       0.25000000       0.12500000 </v>
   <v>       0.41666667       0.25000000       0.12500000 </v>
   <v>       0.45833333       0.25000000       0.12500000 </v>
   <v>       0.50000000       0.25000000       0.12500000 </v>
   <v>      -0.45833333       0.25000000       0.12500000 </v>
   <v>      -0.41666667       0.25000000       0.12500000 </v>
   <v>      -0.37500000       0.25000000       0.12500000 </v>
   <v>       0.41666667       0.29166667       0.12500000 </v>
   <v>       0.45833333       0.29166667       0.12500000 </v>
   <v>       0.50000000       0.29166667       0.12500000 </v>
   <v>      -0.45833333       0.29166667       0.12500000 </v>
   <v>      -0.41666667       0.29166667       0.12500000 </v>
   <v>      -0.37500000       0.29166667       0.12500000 </v>
   <v>      -0.33333333       0.29166667       0.12500000 </v>
   <v>      -0.29166667       0.29166667       0.12500000 </v>
   <v>      -0.25000000       0.29166667       0.12500000 </v>
   <v>      -0.20833333       0.29166667       0.12500000 </v>
   <v>      -0.16666667       0.29166667       0.12500000 </v>
   <v>       0.45833333       0.33333333       0.12500000 </v>
   <v>       0.50000000       0.33333333       0.12500000 </v>
   <v>      -0.45833333       0.33333333       0.12500000 </v>
   <v>      -0.41666667       0.33333333       0.12500000 </v>
   <v>      -0.37500000       0.33333333       0.12500000 </v>
   <v>      -0.33333333       0.33333333       0.12500000 </v>
   <v>      -0.29166667       0.33333333       0.12500000 </v>
   <v>      -0.25000000       0.33333333       0.12500000 </v>
   <v>      -0.20833333       0.33333333       0.12500000 </v>
   <v>       0.50000000       0.37500000       0.12500000 </v>
   <v>      -0.45833333       0.37500000       0.12500000 </v>
   <v>      -0.41666667       0.37500000       0.12500000 </v>
   <v>      -0.37500000       0.37500000       0.12500000 </v>
   <v>      -0.33333333       0.37500000       0.12500000 </v>
   <v>      -0.29166667       0.37500000       0.12500000 </v>
   <v>      -0.25000000       0.37500000       0.12500000 </v>
   <v>      -0.45833333       0.41666667       0.12500000 </v>
   <v>      -0.41666667       0.41666667       0.12500000 </v>
   <v>      -0.37500000       0.41666667       0.12500000 </v>
   <v>      -0.33333333       0.41666667       0.12500000 </v>
   <v>      -0.29166667       0.41666667       0.12500000 </v>
   <v>      -0.41666667       0.45833333       0.12500000 </v>
   <v>      -0.37500000       0.45833333       0.12500000 </v>
   <v>      -0.33333333       0.45833333       0.12500000 </v>
   <v>      -0.37500000       0.50000000       0.12500000 </v>
   <v>       0.50000000       0.33333333       0.16666667 </v>
   <v>      -0.45833333       0.33333333       0.16666667 </v>
   <v>      -0.41666667       0.33333333       0.16666667 </v>
   <v>      -0.37500000       0.33333333       0.16666667 </v>
   <v>      -0.33333333       0.33333333       0.16666667 </v>
   <v>      -0.45833333       0.37500000       0.16666667 </v>
   <v>      -0.41666667       0.37500000       0.16666667 </v>
   <v>      -0.37500000       0.37500000       0.16666667 </v>
   <v>      -0.33333333       0.37500000       0.16666667 </v>
   <v>      -0.29166667       0.37500000       0.16666667 </v>
   <v>      -0.25000000       0.37500000       0.16666667 </v>
   <v>      -0.20833333       0.37500000       0.16666667 </v>
   <v>      -0.41666667       0.41666667       0.16666667 </v>
   <v>      -0.37500000       0.41666667       0.16666667 </v>
   <v>      -0.33333333       0.41666667       0.16666667 </v>
   <v>      -0.29166667       0.41666667       0.16666667 </v>
   <v>      -0.25000000       0.41666667       0.16666667 </v>
   <v>      -0.37500000       0.45833333       0.16666667 </v>
   <v>      -0.33333333       0.45833333       0.16666667 </v>
   <v>      -0.29166667       0.45833333       0.16666667 </v>
   <v>      -0.33333333       0.50000000       0.16666667 </v>
   <v>      -0.37500000       0.41666667       0.20833333 </v>
   <v>      -0.33333333       0.41666667       0.20833333 </v>
   <v>      -0.29166667       0.41666667       0.20833333 </v>
   <v>      -0.33333333       0.45833333       0.20833333 </v>
   <v>      -0.29166667       0.45833333       0.20833333 </v>
   <v>      -0.25000000       0.45833333       0.20833333 </v>
   <v>      -0.29166667       0.50000000       0.20833333 </v>
   <v>      -0.25000000       0.50000000       0.25000000 </v>
  </varray>
  <varray name="weights" >
   <v>       0.00007234 </v>
   <v>       0.00057870 </v>
   <v>       0.00057870 </v>
   <v>       0.00057870 </v>
   <v>       0.00057870 </v>
   <v>       0.00057870 </v>
   <v>       0.00057870 </v>
   <v>       0.00057870 </v>
   <v>       0.00057870 </v>
   <v>       0.00057870 </v>
   <v>       0.00057870 </v>
   <v>       0.00057870 </v>
   <v>       0.00028935 </v>
   <v>       0.00043403 </v>
   <v>       0.00173611 </v>
   <v>       0.00173611 </v>
   <v>       0.00173611 </v>
   <v>       0.00173611 </v>
   <v>       0.00173611 </v>
   <v>       0.00173611 </v>
   <v>       0.00173611 </v>
   <v>       0.00173611 </v>
   <v>       0.00173611 </v>
   <v>       0.00173611 </v>
   <v>       0.00173611 </v>
   <v>       0.00173611 </v>
   <v>       0.00173611 </v>
   <v>       0.00173611 </v>
   <v>       0.00173611 </v>
   <v>       0.00173611 </v>
   <v>       0.00173611 </v>
   <v>       0.00173611 </v>
   <v>       0.00173611 </v>
   <v>       0.00173611 </v>
   <v>       0.00173611 </v>
   <v>       0.00086806 </v>
   <v>       0.00043403 </v>
   <v>       0.00173611 </v>
   <v>       0.00173611 </v>
   <v>       0.00173611 </v>
   <v>       0.00173611 </v>
   <v>       0.00173611 </v>
   <v>       0.00173611 </v>
   <v>       0.00173611 </v>
   <v>       0.00173611 </v>
   <v>       0.00173611 </v>
   <v>       0.00173611 </v>
   <v>       0.00173611 </v>
   <v>       0.00173611 </v>
   <v>       0.00173611 </v>
   <v>       0.00173611 </v>
   <v>       0.00173611 </v>
   <v>       0.00173611 </v>
   <v>       0.00173611 </v>
   <v>       0.00173611 </v>
   <v>       0.00173611 </v>
   <v>       0.00086806 </v>
   <v>       0.00043403 </v>
   <v>       0.00173611 </v>
   <v>       0.00173611 </v>
   <v>       0.00173611 </v>
   <v>       0.00173611 </v>
   <v>       0.00173611 </v>
   <v>       0.00173611 </v>
   <v>       0.00173611 </v>
   <v>       0.00173611 </v>
   <v>       0.00173611 </v>
   <v>       0.00173611 </v>
   <v>       0.00173611 </v>
   <v>       0.00173611 </v>
   <v>       0.00173611 </v>
   <v>       0.00173611 </v>
   <v>       0.00173611 </v>
   <v>       0.00173611 </v>
   <v>       0.00173611 </v>
   <v>       0.00086806 </v>
   <v>       0.00043403 </v>
   <v>       0.00173611 </v>
   <v>       0.00173611 </v>
   <v>       0.00173611 </v>
   <v>       0.00173611 </v>
   <v>       0.00173611 </v>
   <v>       0.00173611 </v>
   <v>       0.00173611 </v>
   <v>       0.00173611 </v>
   <v>       0.00173611 </v>
   <v>       0.00173611 </v>
   <v>       0.00173611 </v>
   <v>       0.00173611 </v>
   <v>       0.00173611 </v>
   <v>       0.00173611 </v>
   <v>       0.00173611 </v>
   <v>       0.00086806 </v>
   <v>       0.00043403 </v>
   <v>       0.00173611 </v>
   <v>       0.00173611 </v>
   <v>       0.00173611 </v>
   <v>       0.00173611 </v>
   <v>       0.00173611 </v>
   <v>       0.00173611 </v>
   <v>       0.00173611 </v>
   <v>       0.00173611 </v>
   <v>       0.00173611 </v>
   <v>       0.00173611 </v>
   <v>       0.00173611 </v>
   <v>       0.00173611 </v>
   <v>       0.00173611 </v>
   <v>       0.00086806 </v>
   <v>       0.00043403 </v>
   <v>       0.00173611 </v>
   <v>       0.00173611 </v>
   <v>       0.00173611 </v>
   <v>       0.00173611 </v>
   <v>       0.00173611 </v>
   <v>       0.00173611 </v>
   <v>       0.00173611 </v>
   <v>       0.00173611 </v>
   <v>       0.00173611 </v>
   <v>       0.00173611 </v>
   <v>       0.00173611 </v>
   <v>       0.00086806 </v>
   <v>       0.00043403 </v>
   <v>       0.00173611 </v>
   <v>       0.00173611 </v>
   <v>       0.00173611 </v>
   <v>       0.00173611 </v>
   <v>       0.00173611 </v>
   <v>       0.00173611 </v>
   <v>       0.00173611 </v>
   <v>       0.00173611 </v>
   <v>       0.00173611 </v>
   <v>       0.00086806 </v>
   <v>       0.00043403 </v>
   <v>       0.00173611 </v>
   <v>       0.00173611 </v>
   <v>       0.00173611 </v>
   <v>       0.00173611 </v>
   <v>       0.00173611 </v>
   <v>       0.00173611 </v>
   <v>       0.00173611 </v>
   <v>       0.00086806 </v>
   <v>       0.00043403 </v>
   <v>       0.00173611 </v>
   <v>       0.00173611 </v>
   <v>       0.00173611 </v>
   <v>       0.00173611 </v>
   <v>       0.00173611 </v>
   <v>       0.00086806 </v>
   <v>       0.00043403 </v>
   <v>       0.00173611 </v>
   <v>       0.00173611 </v>
   <v>       0.00173611 </v>
   <v>       0.00086806 </v>
   <v>       0.00043403 </v>
   <v>       0.00173611 </v>
   <v>       0.00086806 </v>
   <v>       0.00021701 </v>
   <v>       0.00173611 </v>
   <v>       0.00347222 </v>
   <v>       0.00347222 </v>
   <v>       0.00347222 </v>
   <v>       0.00347222 </v>
   <v>       0.00347222 </v>
   <v>       0.00347222 </v>
   <v>       0.00347222 </v>
   <v>       0.00347222 </v>
   <v>       0.00347222 </v>
   <v>       0.00173611 </v>
   <v>       0.00173611 </v>
   <v>       0.00347222 </v>
   <v>       0.00347222 </v>
   <v>       0.00347222 </v>
   <v>       0.00347222 </v>
   <v>       0.00347222 </v>
   <v>       0.00347222 </v>
   <v>       0.00347222 </v>
   <v>       0.00347222 </v>
   <v>       0.00347222 </v>
   <v>       0.00347222 </v>
   <v>       0.00347222 </v>
   <v>       0.00347222 </v>
   <v>       0.00347222 </v>
   <v>       0.00347222 </v>
   <v>       0.00347222 </v>
   <v>       0.00347222 </v>
   <v>       0.00347222 </v>
   <v>       0.00173611 </v>
   <v>       0.00173611 </v>
   <v>       0.00347222 </v>
   <v>       0.00347222 </v>
   <v>       0.00347222 </v>
   <v>       0.00347222 </v>
   <v>       0.00347222 </v>
   <v>       0.00347222 </v>
   <v>       0.00347222 </v>
   <v>       0.00347222 </v>
   <v>       0.00347222 </v>
   <v>       0.00347222 </v>
   <v>       0.00347222 </v>
   <v>       0.00347222 </v>
   <v>       0.00347222 </v>
   <v>       0.00347222 </v>
   <v>       0.00347222 </v>
   <v>       0.00173611 </v>
   <v>       0.00173611 </v>
   <v>       0.00347222 </v>
   <v>       0.00347222 </v>
   <v>       0.00347222 </v>
   <v>       0.00347222 </v>
   <v>       0.00347222 </v>
   <v>       0.00347222 </v>
   <v>       0.00347222 </v>
   <v>       0.00347222 </v>
   <v>       0.00347222 </v>
   <v>       0.00347222 </v>
   <v>       0.00347222 </v>
   <v>       0.00347222 </v>
   <v>       0.00347222 </v>
   <v>       0.00173611 </v>
   <v>       0.00173611 </v>
   <v>       0.00347222 </v>
   <v>       0.00347222 </v>
   <v>       0.00347222 </v>
   <v>       0.00347222 </v>
   <v>       0.00347222 </v>
   <v>       0.00347222 </v>
   <v>       0.00347222 </v>
   <v>       0.00347222 </v>
   <v>       0.00347222 </v>
   <v>       0.00347222 </v>
   <v>       0.00347222 </v>
   <v>       0.00173611 </v>
   <v>       0.00173611 </v>
   <v>       0.00347222 </v>
   <v>       0.00347222 </v>
   <v>       0.00347222 </v>
   <v>       0.00347222 </v>
   <v>       0.00347222 </v>
   <v>       0.00347222 </v>
   <v>       0.00347222 </v>
   <v>       0.00347222 </v>
   <v>       0.00347222 </v>
   <v>       0.00173611 </v>
   <v>       0.00173611 </v>
   <v>       0.00347222 </v>
   <v>       0.00347222 </v>
   <v>       0.00347222 </v>
   <v>       0.00347222 </v>
   <v>       0.00347222 </v>
   <v>       0.00347222 </v>
   <v>       0.00347222 </v>
   <v>       0.00173611 </v>
   <v>       0.00173611 </v>
   <v>       0.00347222 </v>
   <v>       0.00347222 </v>
   <v>       0.00347222 </v>
   <v>       0.00347222 </v>
   <v>       0.00347222 </v>
   <v>       0.00173611 </v>
   <v>       0.00173611 </v>
   <v>       0.00347222 </v>
   <v>       0.00347222 </v>
   <v>       0.00347222 </v>
   <v>       0.00173611 </v>
   <v>       0.00173611 </v>
   <v>       0.00347222 </v>
   <v>       0.00173611 </v>
   <v>       0.00086806 </v>
   <v>       0.00173611 </v>
   <v>       0.00347222 </v>
   <v>       0.00347222 </v>
   <v>       0.00347222 </v>
   <v>       0.00347222 </v>
   <v>       0.00347222 </v>
   <v>       0.00347222 </v>
   <v>       0.00347222 </v>
   <v>       0.00173611 </v>
   <v>       0.00173611 </v>
   <v>       0.00347222 </v>
   <v>       0.00347222 </v>
   <v>       0.00347222 </v>
   <v>       0.00347222 </v>
   <v>       0.00347222 </v>
   <v>       0.00347222 </v>
   <v>       0.00347222 </v>
   <v>       0.00347222 </v>
   <v>       0.00347222 </v>
   <v>       0.00347222 </v>
   <v>       0.00347222 </v>
   <v>       0.00347222 </v>
   <v>       0.00347222 </v>
   <v>       0.00173611 </v>
   <v>       0.00173611 </v>
   <v>       0.00347222 </v>
   <v>       0.00347222 </v>
   <v>       0.00347222 </v>
   <v>       0.00347222 </v>
   <v>       0.00347222 </v>
   <v>       0.00347222 </v>
   <v>       0.00347222 </v>
   <v>       0.00347222 </v>
   <v>       0.00347222 </v>
   <v>       0.00347222 </v>
   <v>       0.00347222 </v>
   <v>       0.00173611 </v>
   <v>       0.00173611 </v>
   <v>       0.00347222 </v>
   <v>       0.00347222 </v>
   <v>       0.00347222 </v>
   <v>       0.00347222 </v>
   <v>       0.00347222 </v>
   <v>       0.00347222 </v>
   <v>       0.00347222 </v>
   <v>       0.00347222 </v>
   <v>       0.00347222 </v>
   <v>       0.00173611 </v>
   <v>       0.00173611 </v>
   <v>       0.00347222 </v>
   <v>       0.00347222 </v>
   <v>       0.00347222 </v>
   <v>       0.00347222 </v>
   <v>       0.00347222 </v>
   <v>       0.00347222 </v>
   <v>       0.00347222 </v>
   <v>       0.00173611 </v>
   <v>       0.00173611 </v>
   <v>       0.00347222 </v>
   <v>       0.00347222 </v>
   <v>       0.00347222 </v>
   <v>       0.00347222 </v>
   <v>       0.00347222 </v>
   <v>       0.00173611 </v>
   <v>       0.00173611 </v>
   <v>       0.00347222 </v>
   <v>       0.00347222 </v>
   <v>       0.00347222 </v>
   <v>       0.00173611 </v>
   <v>       0.00173611 </v>
   <v>       0.00347222 </v>
   <v>       0.00173611 </v>
   <v>       0.00086806 </v>
   <v>       0.00173611 </v>
   <v>       0.00347222 </v>
   <v>       0.00347222 </v>
   <v>       0.00347222 </v>
   <v>       0.00347222 </v>
   <v>       0.00347222 </v>
   <v>       0.00173611 </v>
   <v>       0.00173611 </v>
   <v>       0.00347222 </v>
   <v>       0.00347222 </v>
   <v>       0.00347222 </v>
   <v>       0.00347222 </v>
   <v>       0.00347222 </v>
   <v>       0.00347222 </v>
   <v>       0.00347222 </v>
   <v>       0.00347222 </v>
   <v>       0.00347222 </v>
   <v>       0.00173611 </v>
   <v>       0.00173611 </v>
   <v>       0.00347222 </v>
   <v>       0.00347222 </v>
   <v>       0.00347222 </v>
   <v>       0.00347222 </v>
   <v>       0.00347222 </v>
   <v>       0.00347222 </v>
   <v>       0.00347222 </v>
   <v>       0.00173611 </v>
   <v>       0.00173611 </v>
   <v>       0.00347222 </v>
   <v>       0.00347222 </v>
   <v>       0.00347222 </v>
   <v>       0.00347222 </v>
   <v>       0.00347222 </v>
   <v>       0.00173611 </v>
   <v>       0.00173611 </v>
   <v>       0.00347222 </v>
   <v>       0.00347222 </v>
   <v>       0.00347222 </v>
   <v>       0.00173611 </v>
   <v>       0.00173611 </v>
   <v>       0.00347222 </v>
   <v>       0.00173611 </v>
   <v>       0.00086806 </v>
   <v>       0.00173611 </v>
   <v>       0.00347222 </v>
   <v>       0.00347222 </v>
   <v>       0.00347222 </v>
   <v>       0.00173611 </v>
   <v>       0.00173611 </v>
   <v>       0.00347222 </v>
   <v>       0.00347222 </v>
   <v>       0.00347222 </v>
   <v>       0.00347222 </v>
   <v>       0.00347222 </v>
   <v>       0.00173611 </v>
   <v>       0.00173611 </v>
   <v>       0.00347222 </v>
   <v>       0.00347222 </v>
   <v>       0.00347222 </v>
   <v>       0.00173611 </v>
   <v>       0.00173611 </v>
   <v>       0.00347222 </v>
   <v>       0.00173611 </v>
   <v>       0.00086806 </v>
   <v>       0.00173611 </v>
   <v>       0.00347222 </v>
   <v>       0.00173611 </v>
   <v>       0.00173611 </v>
   <v>       0.00347222 </v>
   <v>       0.00173611 </v>
   <v>       0.00086806 </v>
   <v>       0.00043403 </v>
  </varray>
  <varray name="tetrahedronlist"  type="int" >
   <v type="int" >       24        1        2        2       14 </v>
   <v type="int" >       48        2       14       15       36 </v>
   <v type="int" >       48        2        3       15       36 </v>
   <v type="int" >       24        2        2       14       36 </v>
   <v type="int" >       48        3       15       16       35 </v>
   <v type="int" >       48        3        4       16       35 </v>
   <v type="int" >       48        3       15       35       36 </v>
   <v type="int" >       48        4       16       17       34 </v>
   <v type="int" >       48        4        5       17       34 </v>
   <v type="int" >       48        4       16       34       35 </v>
   <v type="int" >       48        5       17       18       33 </v>
   <v type="int" >       48        5        6       18       33 </v>
   <v type="int" >       48        5       17       33       34 </v>
   <v type="int" >       48        6       18       19       32 </v>
   <v type="int" >       48        6        7       19       32 </v>
   <v type="int" >       48        6       18       32       33 </v>
   <v type="int" >       48        7       19       20       31 </v>
   <v type="int" >       48        7        8       20       31 </v>
   <v type="int" >       48        7       19       31       32 </v>
   <v type="int" >       48        8       20       21       30 </v>
   <v type="int" >       48        8        9       21       30 </v>
   <v type="int" >       48        8       20       30       31 </v>
   <v type="int" >       48        9       21       22       29 </v>
   <v type="int" >       48        9       10       22       29 </v>
   <v type="int" >       48        9       21       29       30 </v>
   <v type="int" >       48       10       22       23       28 </v>
   <v type="int" >       48       10       11       23       28 </v>
   <v type="int" >       48       10       22       28       29 </v>
   <v type="int" >       48       11       23       24       27 </v>
   <v type="int" >       48       11       12       24       27 </v>
   <v type="int" >       48       11       23       27       28 </v>
   <v type="int" >       48       12       24       25       26 </v>
   <v type="int" >       48       12       13       25       26 </v>
   <v type="int" >       48       12       24       26       27 </v>
   <v type="int" >       48       13       25       25       26 </v>
   <v type="int" >       24       14       15       15       37 </v>
   <v type="int" >       24       14       15       15       36 </v>
   <v type="int" >       48       15       37       38      158 </v>
   <v type="int" >       48       15       16       38      158 </v>
   <v type="int" >       48       15       16       35      158 </v>
   <v type="int" >       24       15       15       37      158 </v>
   <v type="int" >       24       15       15       36      158 </v>
   <v type="int" >       48       15       35       36      158 </v>
   <v type="int" >       48       16       38       39      159 </v>
   <v type="int" >       48       16       17       39      159 </v>
   <v type="int" >       48       16       17       34      159 </v>
   <v type="int" >       48       16       38      158      159 </v>
   <v type="int" >       48       16       35      158      159 </v>
   <v type="int" >       48       16       34       35      159 </v>
   <v type="int" >       48       17       39       40      160 </v>
   <v type="int" >       48       17       18       40      160 </v>
   <v type="int" >       48       17       18       33      160 </v>
   <v type="int" >       48       17       39      159      160 </v>
   <v type="int" >       48       17       34      159      160 </v>
   <v type="int" >       48       17       33       34      160 </v>
   <v type="int" >       48       18       40       41      161 </v>
   <v type="int" >       48       18       19       41      161 </v>
   <v type="int" >       48       18       19       32      161 </v>
   <v type="int" >       48       18       40      160      161 </v>
   <v type="int" >       48       18       33      160      161 </v>
   <v type="int" >       48       18       32       33      161 </v>
   <v type="int" >       48       19       41       42      162 </v>
   <v type="int" >       48       19       20       42      162 </v>
   <v type="int" >       48       19       20       31      162 </v>
   <v type="int" >       48       19       41      161      162 </v>
   <v type="int" >       48       19       32      161      162 </v>
   <v type="int" >       48       19       31       32      162 </v>
   <v type="int" >       48       20       42       43      163 </v>
   <v type="int" >       48       20       21       43      163 </v>
   <v type="int" >       48       20       21       30      163 </v>
   <v type="int" >       48       20       42      162      163 </v>
   <v type="int" >       48       20       31      162      163 </v>
   <v type="int" >       48       20       30       31      163 </v>
   <v type="int" >       48       21       43       44      164 </v>
   <v type="int" >       48       21       22       44      164 </v>
   <v type="int" >       48       21       22       29      164 </v>
   <v type="int" >       48       21       43      163      164 </v>
   <v type="int" >       48       21       30      163      164 </v>
   <v type="int" >       48       21       29       30      164 </v>
   <v type="int" >       48       22       44       45      165 </v>
   <v type="int" >       48       22       23       45      165 </v>
   <v type="int" >       48       22       23       28      165 </v>
   <v type="int" >       48       22       44      164      165 </v>
   <v type="int" >       48       22       29      164      165 </v>
   <v type="int" >       48       22       28       29      165 </v>
   <v type="int" >       48       23       45       46      166 </v>
   <v type="int" >       48       23       24       46      166 </v>
   <v type="int" >       48       23       24       27      166 </v>
   <v type="int" >       48       23       45      165      166 </v>
   <v type="int" >       48       23       28      165      166 </v>
   <v type="int" >       48       23       27       28      166 </v>
   <v type="int" >       48       24       46       47      167 </v>
   <v type="int" >       48       24       25       47      167 </v>
   <v type="int" >       48       24       25       26      167 </v>
   <v type="int" >       48       24       46      166      167 </v>
   <v type="int" >       48       24       27      166      167 </v>
   <v type="int" >       48       24       26       27      167 </v>
   <v type="int" >       48       25       47       48      168 </v>
   <v type="int" >       48       25       26       48      168 </v>
   <v type="int" >       48       25       25       26      168 </v>
   <v type="int" >       48       25       47      167      168 </v>
   <v type="int" >       48       25       26      167      168 </v>
   <v type="int" >       48       26       48       49      167 </v>
   <v type="int" >       48       26       27       49      167 </v>
   <v type="int" >       48       26       48      167      168 </v>
   <v type="int" >       48       27       49       50      166 </v>
   <v type="int" >       48       27       28       50      166 </v>
   <v type="int" >       48       27       49      166      167 </v>
   <v type="int" >       48       28       50       51      165 </v>
   <v type="int" >       48       28       29       51      165 </v>
   <v type="int" >       48       28       50      165      166 </v>
   <v type="int" >       48       29       51       52      164 </v>
   <v type="int" >       48       29       30       52      164 </v>
   <v type="int" >       48       29       51      164      165 </v>
   <v type="int" >       48       30       52       53      163 </v>
   <v type="int" >       48       30       31       53      163 </v>
   <v type="int" >       48       30       52      163      164 </v>
   <v type="int" >       48       31       53       54      162 </v>
   <v type="int" >       48       31       32       54      162 </v>
   <v type="int" >       48       31       53      162      163 </v>
   <v type="int" >       48       32       54       55      161 </v>
   <v type="int" >       48       32       33       55      161 </v>
   <v type="int" >       48       32       54      161      162 </v>
   <v type="int" >       48       33       55       56      160 </v>
   <v type="int" >       48       33       34       56      160 </v>
   <v type="int" >       48       33       55      160      161 </v>
   <v type="int" >       48       34       56       57      159 </v>
   <v type="int" >       48       34       35       57      159 </v>
   <v type="int" >       48       34       56      159      160 </v>
   <v type="int" >       24       35       35       57      158 </v>
   <v type="int" >       24       35       35       36      158 </v>
   <v type="int" >       48       35       57      158      159 </v>
   <v type="int" >       24       37       38       38       58 </v>
   <v type="int" >       24       37       38       38      158 </v>
   <v type="int" >       48       38       58       59      169 </v>
   <v type="int" >       48       38       39       59      169 </v>
   <v type="int" >       48       38       39      159      169 </v>
   <v type="int" >       24       38       38       58      169 </v>
   <v type="int" >       24       38       38      158      169 </v>
   <v type="int" >       48       38      158      159      169 </v>
   <v type="int" >       48       39       59       60      170 </v>
   <v type="int" >       48       39       40       60      170 </v>
   <v type="int" >       48       39       40      160      170 </v>
   <v type="int" >       48       39       59      169      170 </v>
   <v type="int" >       48       39      159      169      170 </v>
   <v type="int" >       48       39      159      160      170 </v>
   <v type="int" >       48       40       60       61      171 </v>
   <v type="int" >       48       40       41       61      171 </v>
   <v type="int" >       48       40       41      161      171 </v>
   <v type="int" >       48       40       60      170      171 </v>
   <v type="int" >       48       40      160      170      171 </v>
   <v type="int" >       48       40      160      161      171 </v>
   <v type="int" >       48       41       61       62      172 </v>
   <v type="int" >       48       41       42       62      172 </v>
   <v type="int" >       48       41       42      162      172 </v>
   <v type="int" >       48       41       61      171      172 </v>
   <v type="int" >       48       41      161      171      172 </v>
   <v type="int" >       48       41      161      162      172 </v>
   <v type="int" >       48       42       62       63      173 </v>
   <v type="int" >       48       42       43       63      173 </v>
   <v type="int" >       48       42       43      163      173 </v>
   <v type="int" >       48       42       62      172      173 </v>
   <v type="int" >       48       42      162      172      173 </v>
   <v type="int" >       48       42      162      163      173 </v>
   <v type="int" >       48       43       63       64      174 </v>
   <v type="int" >       48       43       44       64      174 </v>
   <v type="int" >       48       43       44      164      174 </v>
   <v type="int" >       48       43       63      173      174 </v>
   <v type="int" >       48       43      163      173      174 </v>
   <v type="int" >       48       43      163      164      174 </v>
   <v type="int" >       48       44       64       65      175 </v>
   <v type="int" >       48       44       45       65      175 </v>
   <v type="int" >       48       44       45      165      175 </v>
   <v type="int" >       48       44       64      174      175 </v>
   <v type="int" >       48       44      164      174      175 </v>
   <v type="int" >       48       44      164      165      175 </v>
   <v type="int" >       48       45       65       66      176 </v>
   <v type="int" >       48       45       46       66      176 </v>
   <v type="int" >       48       45       46      166      176 </v>
   <v type="int" >       48       45       65      175      176 </v>
   <v type="int" >       48       45      165      175      176 </v>
   <v type="int" >       48       45      165      166      176 </v>
   <v type="int" >       48       46       66       67      177 </v>
   <v type="int" >       48       46       47       67      177 </v>
   <v type="int" >       48       46       47      167      177 </v>
   <v type="int" >       48       46       66      176      177 </v>
   <v type="int" >       48       46      166      176      177 </v>
   <v type="int" >       48       46      166      167      177 </v>
   <v type="int" >       48       47       67       68      178 </v>
   <v type="int" >       48       47       48       68      178 </v>
   <v type="int" >       48       47       48      168      178 </v>
   <v type="int" >       48       47       67      177      178 </v>
   <v type="int" >       48       47      167      177      178 </v>
   <v type="int" >       48       47      167      168      178 </v>
   <v type="int" >       48       48       68       69      179 </v>
   <v type="int" >       48       48       49       69      179 </v>
   <v type="int" >       48       48       49      167      179 </v>
   <v type="int" >       48       48       68      178      179 </v>
   <v type="int" >       48       48      168      178      179 </v>
   <v type="int" >       48       48      167      168      179 </v>
   <v type="int" >       48       49       69       70      180 </v>
   <v type="int" >       48       49       50       70      180 </v>
   <v type="int" >       48       49       50      166      180 </v>
   <v type="int" >       48       49       69      179      180 </v>
   <v type="int" >       48       49      167      179      180 </v>
   <v type="int" >       48       49      166      167      180 </v>
   <v type="int" >       48       50       70       71      181 </v>
   <v type="int" >       48       50       51       71      181 </v>
   <v type="int" >       48       50       51      165      181 </v>
   <v type="int" >       48       50       70      180      181 </v>
   <v type="int" >       48       50      166      180      181 </v>
   <v type="int" >       48       50      165      166      181 </v>
   <v type="int" >       48       51       71       72      182 </v>
   <v type="int" >       48       51       52       72      182 </v>
   <v type="int" >       48       51       52      164      182 </v>
   <v type="int" >       48       51       71      181      182 </v>
   <v type="int" >       48       51      165      181      182 </v>
   <v type="int" >       48       51      164      165      182 </v>
   <v type="int" >       48       52       72       73      183 </v>
   <v type="int" >       48       52       53       73      183 </v>
   <v type="int" >       48       52       53      163      183 </v>
   <v type="int" >       48       52       72      182      183 </v>
   <v type="int" >       48       52      164      182      183 </v>
   <v type="int" >       48       52      163      164      183 </v>
   <v type="int" >       48       53       73       74      184 </v>
   <v type="int" >       48       53       54       74      184 </v>
   <v type="int" >       48       53       54      162      184 </v>
   <v type="int" >       48       53       73      183      184 </v>
   <v type="int" >       48       53      163      183      184 </v>
   <v type="int" >       48       53      162      163      184 </v>
   <v type="int" >       48       54       74       75      185 </v>
   <v type="int" >       48       54       55       75      185 </v>
   <v type="int" >       48       54       55      161      185 </v>
   <v type="int" >       48       54       74      184      185 </v>
   <v type="int" >       48       54      162      184      185 </v>
   <v type="int" >       48       54      161      162      185 </v>
   <v type="int" >       48       55       75       76      186 </v>
   <v type="int" >       48       55       56       76      186 </v>
   <v type="int" >       48       55       56      160      186 </v>
   <v type="int" >       48       55       75      185      186 </v>
   <v type="int" >       48       55      161      185      186 </v>
   <v type="int" >       48       55      160      161      186 </v>
   <v type="int" >       24       56       56       76      187 </v>
   <v type="int" >       24       56       56       57      187 </v>
   <v type="int" >       48       56       57      159      187 </v>
   <v type="int" >       48       56       76      186      187 </v>
   <v type="int" >       48       56      160      186      187 </v>
   <v type="int" >       48       56      159      160      187 </v>
   <v type="int" >       24       57      159      159      187 </v>
   <v type="int" >       24       57      158      159      159 </v>
   <v type="int" >       24       58       59       59       77 </v>
   <v type="int" >       24       58       59       59      169 </v>
   <v type="int" >       48       59       77       78      188 </v>
   <v type="int" >       48       59       60       78      188 </v>
   <v type="int" >       48       59       60      170      188 </v>
   <v type="int" >       24       59       59       77      188 </v>
   <v type="int" >       24       59       59      169      188 </v>
   <v type="int" >       48       59      169      170      188 </v>
   <v type="int" >       48       60       78       79      189 </v>
   <v type="int" >       48       60       61       79      189 </v>
   <v type="int" >       48       60       61      171      189 </v>
   <v type="int" >       48       60       78      188      189 </v>
   <v type="int" >       48       60      170      188      189 </v>
   <v type="int" >       48       60      170      171      189 </v>
   <v type="int" >       48       61       79       80      190 </v>
   <v type="int" >       48       61       62       80      190 </v>
   <v type="int" >       48       61       62      172      190 </v>
   <v type="int" >       48       61       79      189      190 </v>
   <v type="int" >       48       61      171      189      190 </v>
   <v type="int" >       48       61      171      172      190 </v>
   <v type="int" >       48       62       80       81      191 </v>
   <v type="int" >       48       62       63       81      191 </v>
   <v type="int" >       48       62       63      173      191 </v>
   <v type="int" >       48       62       80      190      191 </v>
   <v type="int" >       48       62      172      190      191 </v>
   <v type="int" >       48       62      172      173      191 </v>
   <v type="int" >       48       63       81       82      192 </v>
   <v type="int" >       48       63       64       82      192 </v>
   <v type="int" >       48       63       64      174      192 </v>
   <v type="int" >       48       63       81      191      192 </v>
   <v type="int" >       48       63      173      191      192 </v>
   <v type="int" >       48       63      173      174      192 </v>
   <v type="int" >       48       64       82       83      193 </v>
   <v type="int" >       48       64       65       83      193 </v>
   <v type="int" >       48       64       65      175      193 </v>
   <v type="int" >       48       64       82      192      193 </v>
   <v type="int" >       48       64      174      192      193 </v>
   <v type="int" >       48       64      174      175      193 </v>
   <v type="int" >       48       65       83       84      194 </v>
   <v type="int" >       48       65       66       84      194 </v>
   <v type="int" >       48       65       66      176      194 </v>
   <v type="int" >       48       65       83      193      194 </v>
   <v type="int" >       48       65      175      193      194 </v>
   <v type="int" >       48       65      175      176      194 </v>
   <v type="int" >       48       66       84       85      195 </v>
   <v type="int" >       48       66       67       85      195 </v>
   <v type="int" >       48       66       67      177      195 </v>
   <v type="int" >       48       66       84      194      195 </v>
   <v type="int" >       48       66      176      194      195 </v>
   <v type="int" >       48       66      176      177      195 </v>
   <v type="int" >       48       67       85       86      196 </v>
   <v type="int" >       48       67       68       86      196 </v>
   <v type="int" >       48       67       68      178      196 </v>
   <v type="int" >       48       67       85      195      196 </v>
   <v type="int" >       48       67      177      195      196 </v>
   <v type="int" >       48       67      177      178      196 </v>
   <v type="int" >       48       68       86       87      197 </v>
   <v type="int" >       48       68       69       87      197 </v>
   <v type="int" >       48       68       69      179      197 </v>
   <v type="int" >       48       68       86      196      197 </v>
   <v type="int" >       48       68      178      196      197 </v>
   <v type="int" >       48       68      178      179      197 </v>
   <v type="int" >       48       69       87       88      198 </v>
   <v type="int" >       48       69       70       88      198 </v>
   <v type="int" >       48       69       70      180      198 </v>
   <v type="int" >       48       69       87      197      198 </v>
   <v type="int" >       48       69      179      197      198 </v>
   <v type="int" >       48       69      179      180      198 </v>
   <v type="int" >       48       70       88       89      199 </v>
   <v type="int" >       48       70       71       89      199 </v>
   <v type="int" >       48       70       71      181      199 </v>
   <v type="int" >       48       70       88      198      199 </v>
   <v type="int" >       48       70      180      198      199 </v>
   <v type="int" >       48       70      180      181      199 </v>
   <v type="int" >       48       71       89       90      200 </v>
   <v type="int" >       48       71       72       90      200 </v>
   <v type="int" >       48       71       72      182      200 </v>
   <v type="int" >       48       71       89      199      200 </v>
   <v type="int" >       48       71      181      199      200 </v>
   <v type="int" >       48       71      181      182      200 </v>
   <v type="int" >       48       72       90       91      201 </v>
   <v type="int" >       48       72       73       91      201 </v>
   <v type="int" >       48       72       73      183      201 </v>
   <v type="int" >       48       72       90      200      201 </v>
   <v type="int" >       48       72      182      200      201 </v>
   <v type="int" >       48       72      182      183      201 </v>
   <v type="int" >       48       73       91       92      202 </v>
   <v type="int" >       48       73       74       92      202 </v>
   <v type="int" >       48       73       74      184      202 </v>
   <v type="int" >       48       73       91      201      202 </v>
   <v type="int" >       48       73      183      201      202 </v>
   <v type="int" >       48       73      183      184      202 </v>
   <v type="int" >       48       74       92       93      203 </v>
   <v type="int" >       48       74       75       93      203 </v>
   <v type="int" >       48       74       75      185      203 </v>
   <v type="int" >       48       74       92      202      203 </v>
   <v type="int" >       48       74      184      202      203 </v>
   <v type="int" >       48       74      184      185      203 </v>
   <v type="int" >       24       75       75       93      204 </v>
   <v type="int" >       24       75       75       76      204 </v>
   <v type="int" >       48       75       76      186      204 </v>
   <v type="int" >       48       75       93      203      204 </v>
   <v type="int" >       48       75      185      203      204 </v>
   <v type="int" >       48       75      185      186      204 </v>
   <v type="int" >       24       76      186      186      204 </v>
   <v type="int" >       24       76      186      186      187 </v>
   <v type="int" >       24       77       78       78       94 </v>
   <v type="int" >       24       77       78       78      188 </v>
   <v type="int" >       48       78       94       95      205 </v>
   <v type="int" >       48       78       79       95      205 </v>
   <v type="int" >       48       78       79      189      205 </v>
   <v type="int" >       24       78       78       94      205 </v>
   <v type="int" >       24       78       78      188      205 </v>
   <v type="int" >       48       78      188      189      205 </v>
   <v type="int" >       48       79       95       96      206 </v>
   <v type="int" >       48       79       80       96      206 </v>
   <v type="int" >       48       79       80      190      206 </v>
   <v type="int" >       48       79       95      205      206 </v>
   <v type="int" >       48       79      189      205      206 </v>
   <v type="int" >       48       79      189      190      206 </v>
   <v type="int" >       48       80       96       97      207 </v>
   <v type="int" >       48       80       81       97      207 </v>
   <v type="int" >       48       80       81      191      207 </v>
   <v type="int" >       48       80       96      206      207 </v>
   <v type="int" >       48       80      190      206      207 </v>
   <v type="int" >       48       80      190      191      207 </v>
   <v type="int" >       48       81       97       98      208 </v>
   <v type="int" >       48       81       82       98      208 </v>
   <v type="int" >       48       81       82      192      208 </v>
   <v type="int" >       48       81       97      207      208 </v>
   <v type="int" >       48       81      191      207      208 </v>
   <v type="int" >       48       81      191      192      208 </v>
   <v type="int" >       48       82       98       99      209 </v>
   <v type="int" >       48       82       83       99      209 </v>
   <v type="int" >       48       82       83      193      209 </v>
   <v type="int" >       48       82       98      208      209 </v>
   <v type="int" >       48       82      192      208      209 </v>
   <v type="int" >       48       82      192      193      209 </v>
   <v type="int" >       48       83       99      100      210 </v>
   <v type="int" >       48       83       84      100      210 </v>
   <v type="int" >       48       83       84      194      210 </v>
   <v type="int" >       48       83       99      209      210 </v>
   <v type="int" >       48       83      193      209      210 </v>
   <v type="int" >       48       83      193      194      210 </v>
   <v type="int" >       48       84      100      101      211 </v>
   <v type="int" >       48       84       85      101      211 </v>
   <v type="int" >       48       84       85      195      211 </v>
   <v type="int" >       48       84      100      210      211 </v>
   <v type="int" >       48       84      194      210      211 </v>
   <v type="int" >       48       84      194      195      211 </v>
   <v type="int" >       48       85      101      102      212 </v>
   <v type="int" >       48       85       86      102      212 </v>
   <v type="int" >       48       85       86      196      212 </v>
   <v type="int" >       48       85      101      211      212 </v>
   <v type="int" >       48       85      195      211      212 </v>
   <v type="int" >       48       85      195      196      212 </v>
   <v type="int" >       48       86      102      103      213 </v>
   <v type="int" >       48       86       87      103      213 </v>
   <v type="int" >       48       86       87      197      213 </v>
   <v type="int" >       48       86      102      212      213 </v>
   <v type="int" >       48       86      196      212      213 </v>
   <v type="int" >       48       86      196      197      213 </v>
   <v type="int" >       48       87      103      104      214 </v>
   <v type="int" >       48       87       88      104      214 </v>
   <v type="int" >       48       87       88      198      214 </v>
   <v type="int" >       48       87      103      213      214 </v>
   <v type="int" >       48       87      197      213      214 </v>
   <v type="int" >       48       87      197      198      214 </v>
   <v type="int" >       48       88      104      105      215 </v>
   <v type="int" >       48       88       89      105      215 </v>
   <v type="int" >       48       88       89      199      215 </v>
   <v type="int" >       48       88      104      214      215 </v>
   <v type="int" >       48       88      198      214      215 </v>
   <v type="int" >       48       88      198      199      215 </v>
   <v type="int" >       48       89      105      106      216 </v>
   <v type="int" >       48       89       90      106      216 </v>
   <v type="int" >       48       89       90      200      216 </v>
   <v type="int" >       48       89      105      215      216 </v>
   <v type="int" >       48       89      199      215      216 </v>
   <v type="int" >       48       89      199      200      216 </v>
   <v type="int" >       48       90      106      107      217 </v>
   <v type="int" >       48       90       91      107      217 </v>
   <v type="int" >       48       90       91      201      217 </v>
   <v type="int" >       48       90      106      216      217 </v>
   <v type="int" >       48       90      200      216      217 </v>
   <v type="int" >       48       90      200      201      217 </v>
   <v type="int" >       48       91      107      108      218 </v>
   <v type="int" >       48       91       92      108      218 </v>
   <v type="int" >       48       91       92      202      218 </v>
   <v type="int" >       48       91      107      217      218 </v>
   <v type="int" >       48       91      201      217      218 </v>
   <v type="int" >       48       91      201      202      218 </v>
   <v type="int" >       24       92       92      108      219 </v>
   <v type="int" >       24       92       92       93      219 </v>
   <v type="int" >       48       92       93      203      219 </v>
   <v type="int" >       48       92      108      218      219 </v>
   <v type="int" >       48       92      202      218      219 </v>
   <v type="int" >       48       92      202      203      219 </v>
   <v type="int" >       24       93      203      203      219 </v>
   <v type="int" >       24       93      203      203      204 </v>
   <v type="int" >       24       94       95       95      109 </v>
   <v type="int" >       24       94       95       95      205 </v>
   <v type="int" >       48       95      109      110      220 </v>
   <v type="int" >       48       95       96      110      220 </v>
   <v type="int" >       48       95       96      206      220 </v>
   <v type="int" >       24       95       95      109      220 </v>
   <v type="int" >       24       95       95      205      220 </v>
   <v type="int" >       48       95      205      206      220 </v>
   <v type="int" >       48       96      110      111      221 </v>
   <v type="int" >       48       96       97      111      221 </v>
   <v type="int" >       48       96       97      207      221 </v>
   <v type="int" >       48       96      110      220      221 </v>
   <v type="int" >       48       96      206      220      221 </v>
   <v type="int" >       48       96      206      207      221 </v>
   <v type="int" >       48       97      111      112      222 </v>
   <v type="int" >       48       97       98      112      222 </v>
   <v type="int" >       48       97       98      208      222 </v>
   <v type="int" >       48       97      111      221      222 </v>
   <v type="int" >       48       97      207      221      222 </v>
   <v type="int" >       48       97      207      208      222 </v>
   <v type="int" >       48       98      112      113      223 </v>
   <v type="int" >       48       98       99      113      223 </v>
   <v type="int" >       48       98       99      209      223 </v>
   <v type="int" >       48       98      112      222      223 </v>
   <v type="int" >       48       98      208      222      223 </v>
   <v type="int" >       48       98      208      209      223 </v>
   <v type="int" >       48       99      113      114      224 </v>
   <v type="int" >       48       99      100      114      224 </v>
   <v type="int" >       48       99      100      210      224 </v>
   <v type="int" >       48       99      113      223      224 </v>
   <v type="int" >       48       99      209      223      224 </v>
   <v type="int" >       48       99      209      210      224 </v>
   <v type="int" >       48      100      114      115      225 </v>
   <v type="int" >       48      100      101      115      225 </v>
   <v type="int" >       48      100      101      211      225 </v>
   <v type="int" >       48      100      114      224      225 </v>
   <v type="int" >       48      100      210      224      225 </v>
   <v type="int" >       48      100      210      211      225 </v>
   <v type="int" >       48      101      115      116      226 </v>
   <v type="int" >       48      101      102      116      226 </v>
   <v type="int" >       48      101      102      212      226 </v>
   <v type="int" >       48      101      115      225      226 </v>
   <v type="int" >       48      101      211      225      226 </v>
   <v type="int" >       48      101      211      212      226 </v>
   <v type="int" >       48      102      116      117      227 </v>
   <v type="int" >       48      102      103      117      227 </v>
   <v type="int" >       48      102      103      213      227 </v>
   <v type="int" >       48      102      116      226      227 </v>
   <v type="int" >       48      102      212      226      227 </v>
   <v type="int" >       48      102      212      213      227 </v>
   <v type="int" >       48      103      117      118      228 </v>
   <v type="int" >       48      103      104      118      228 </v>
   <v type="int" >       48      103      104      214      228 </v>
   <v type="int" >       48      103      117      227      228 </v>
   <v type="int" >       48      103      213      227      228 </v>
   <v type="int" >       48      103      213      214      228 </v>
   <v type="int" >       48      104      118      119      229 </v>
   <v type="int" >       48      104      105      119      229 </v>
   <v type="int" >       48      104      105      215      229 </v>
   <v type="int" >       48      104      118      228      229 </v>
   <v type="int" >       48      104      214      228      229 </v>
   <v type="int" >       48      104      214      215      229 </v>
   <v type="int" >       48      105      119      120      230 </v>
   <v type="int" >       48      105      106      120      230 </v>
   <v type="int" >       48      105      106      216      230 </v>
   <v type="int" >       48      105      119      229      230 </v>
   <v type="int" >       48      105      215      229      230 </v>
   <v type="int" >       48      105      215      216      230 </v>
   <v type="int" >       48      106      120      121      231 </v>
   <v type="int" >       48      106      107      121      231 </v>
   <v type="int" >       48      106      107      217      231 </v>
   <v type="int" >       48      106      120      230      231 </v>
   <v type="int" >       48      106      216      230      231 </v>
   <v type="int" >       48      106      216      217      231 </v>
   <v type="int" >       24      107      107      121      232 </v>
   <v type="int" >       24      107      107      108      232 </v>
   <v type="int" >       48      107      108      218      232 </v>
   <v type="int" >       48      107      121      231      232 </v>
   <v type="int" >       48      107      217      231      232 </v>
   <v type="int" >       48      107      217      218      232 </v>
   <v type="int" >       24      108      218      218      232 </v>
   <v type="int" >       24      108      218      218      219 </v>
   <v type="int" >       24      109      110      110      122 </v>
   <v type="int" >       24      109      110      110      220 </v>
   <v type="int" >       48      110      122      123      233 </v>
   <v type="int" >       48      110      111      123      233 </v>
   <v type="int" >       48      110      111      221      233 </v>
   <v type="int" >       24      110      110      122      233 </v>
   <v type="int" >       24      110      110      220      233 </v>
   <v type="int" >       48      110      220      221      233 </v>
   <v type="int" >       48      111      123      124      234 </v>
   <v type="int" >       48      111      112      124      234 </v>
   <v type="int" >       48      111      112      222      234 </v>
   <v type="int" >       48      111      123      233      234 </v>
   <v type="int" >       48      111      221      233      234 </v>
   <v type="int" >       48      111      221      222      234 </v>
   <v type="int" >       48      112      124      125      235 </v>
   <v type="int" >       48      112      113      125      235 </v>
   <v type="int" >       48      112      113      223      235 </v>
   <v type="int" >       48      112      124      234      235 </v>
   <v type="int" >       48      112      222      234      235 </v>
   <v type="int" >       48      112      222      223      235 </v>
   <v type="int" >       48      113      125      126      236 </v>
   <v type="int" >       48      113      114      126      236 </v>
   <v type="int" >       48      113      114      224      236 </v>
   <v type="int" >       48      113      125      235      236 </v>
   <v type="int" >       48      113      223      235      236 </v>
   <v type="int" >       48      113      223      224      236 </v>
   <v type="int" >       48      114      126      127      237 </v>
   <v type="int" >       48      114      115      127      237 </v>
   <v type="int" >       48      114      115      225      237 </v>
   <v type="int" >       48      114      126      236      237 </v>
   <v type="int" >       48      114      224      236      237 </v>
   <v type="int" >       48      114      224      225      237 </v>
   <v type="int" >       48      115      127      128      238 </v>
   <v type="int" >       48      115      116      128      238 </v>
   <v type="int" >       48      115      116      226      238 </v>
   <v type="int" >       48      115      127      237      238 </v>
   <v type="int" >       48      115      225      237      238 </v>
   <v type="int" >       48      115      225      226      238 </v>
   <v type="int" >       48      116      128      129      239 </v>
   <v type="int" >       48      116      117      129      239 </v>
   <v type="int" >       48      116      117      227      239 </v>
   <v type="int" >       48      116      128      238      239 </v>
   <v type="int" >       48      116      226      238      239 </v>
   <v type="int" >       48      116      226      227      239 </v>
   <v type="int" >       48      117      129      130      240 </v>
   <v type="int" >       48      117      118      130      240 </v>
   <v type="int" >       48      117      118      228      240 </v>
   <v type="int" >       48      117      129      239      240 </v>
   <v type="int" >       48      117      227      239      240 </v>
[...]
       </set>
       <set comment="band 20">
        <r>  0.0183  0.0367  0.0000 </r>
        <r>  0.0183  0.0367  0.0000 </r>
       </set>
       <set comment="band 21">
        <r>  0.0127  0.0503  0.0000 </r>
        <r>  0.0127  0.0503  0.0000 </r>
       </set>
       <set comment="band 22">
        <r>  0.0026  0.0240  0.0000 </r>
        <r>  0.0026  0.0240  0.0000 </r>
       </set>
       <set comment="band 23">
        <r>  0.0009  0.0589  0.0000 </r>
        <r>  0.0009  0.0589  0.0000 </r>
       </set>
       <set comment="band 24">
        <r>  0.0133  0.0082  0.0000 </r>
        <r>  0.0133  0.0082  0.0000 </r>
       </set>
      </set>
      <set comment="kpoint 408">
       <set comment="band 1">
        <r>  0.2110  0.0343  0.0000 </r>
        <r>  0.2110  0.0343  0.0000 </r>
       </set>
       <set comment="band 2">
        <r>  0.1926  0.0524  0.0000 </r>
        <r>  0.1926  0.0524  0.0000 </r>
       </set>
       <set comment="band 3">
        <r>  0.0034  0.1561  0.0000 </r>
        <r>  0.0034  0.1561  0.0000 </r>
       </set>
       <set comment="band 4">
        <r>  0.0008  0.1684  0.0000 </r>
        <r>  0.0008  0.1684  0.0000 </r>
       </set>
       <set comment="band 5">
        <r>  0.0059  0.0861  0.0000 </r>
        <r>  0.0059  0.0861  0.0000 </r>
       </set>
       <set comment="band 6">
        <r>  0.0419  0.0917  0.0000 </r>
        <r>  0.0419  0.0917  0.0000 </r>
       </set>
       <set comment="band 7">
        <r>  0.0285  0.0889  0.0000 </r>
        <r>  0.0285  0.0889  0.0000 </r>
       </set>
       <set comment="band 8">
        <r>  0.0461  0.1118  0.0000 </r>
        <r>  0.0461  0.1118  0.0000 </r>
       </set>
       <set comment="band 9">
        <r>  0.0071  0.1355  0.0000 </r>
        <r>  0.0071  0.1355  0.0000 </r>
       </set>
       <set comment="band 10">
        <r>  0.0050  0.1116  0.0000 </r>
        <r>  0.0050  0.1116  0.0000 </r>
       </set>
       <set comment="band 11">
        <r>  0.0250  0.1091  0.0000 </r>
        <r>  0.0250  0.1091  0.0000 </r>
       </set>
       <set comment="band 12">
        <r>  0.0048  0.1260  0.0000 </r>
        <r>  0.0048  0.1260  0.0000 </r>
       </set>
       <set comment="band 13">
        <r>  0.0189  0.0173  0.0000 </r>
        <r>  0.0189  0.0173  0.0000 </r>
       </set>
       <set comment="band 14">
        <r>  0.0058  0.0147  0.0000 </r>
        <r>  0.0058  0.0147  0.0000 </r>
       </set>
       <set comment="band 15">
        <r>  0.0051  0.1357  0.0000 </r>
        <r>  0.0051  0.1357  0.0000 </r>
       </set>
       <set comment="band 16">
        <r>  0.0265  0.0371  0.0000 </r>
        <r>  0.0265  0.0371  0.0000 </r>
       </set>
       <set comment="band 17">
        <r>  0.0195  0.0551  0.0000 </r>
        <r>  0.0195  0.0551  0.0000 </r>
       </set>
       <set comment="band 18">
        <r>  0.0110  0.0983  0.0000 </r>
        <r>  0.0110  0.0983  0.0000 </r>
       </set>
       <set comment="band 19">
        <r>  0.0162  0.0370  0.0000 </r>
        <r>  0.0162  0.0370  0.0000 </r>
       </set>
       <set comment="band 20">
        <r>  0.0108  0.0342  0.0000 </r>
        <r>  0.0108  0.0342  0.0000 </r>
       </set>
       <set comment="band 21">
        <r>  0.0050  0.0591  0.0000 </r>
        <r>  0.0050  0.0591  0.0000 </r>
       </set>
       <set comment="band 22">
        <r>  0.0046  0.0551  0.0000 </r>
        <r>  0.0046  0.0551  0.0000 </r>
       </set>
       <set comment="band 23">
        <r>  0.0006  0.0092  0.0000 </r>
        <r>  0.0006  0.0092  0.0000 </r>
       </set>
       <set comment="band 24">
        <r>  0.0027  0.0314  0.0000 </r>
        <r>  0.0027  0.0314  0.0000 </r>
       </set>
      </set>
      <set comment="kpoint 409">
       <set comment="band 1">
        <r>  0.2068  0.0367  0.0000 </r>
        <r>  0.2068  0.0367  0.0000 </r>
       </set>
       <set comment="band 2">
        <r>  0.1985  0.0493  0.0000 </r>
        <r>  0.1985  0.0493  0.0000 </r>
       </set>
       <set comment="band 3">
        <r>  0.0026  0.1592  0.0000 </r>
        <r>  0.0026  0.1592  0.0000 </r>
       </set>
       <set comment="band 4">
        <r>  0.0000  0.1663  0.0000 </r>
        <r>  0.0000  0.1663  0.0000 </r>
       </set>
       <set comment="band 5">
        <r>  0.0258  0.0897  0.0000 </r>
        <r>  0.0258  0.0897  0.0000 </r>
       </set>
       <set comment="band 6">
        <r>  0.0189  0.0794  0.0000 </r>
        <r>  0.0189  0.0794  0.0000 </r>
       </set>
       <set comment="band 7">
        <r>  0.0480  0.1013  0.0000 </r>
        <r>  0.0480  0.1013  0.0000 </r>
       </set>
       <set comment="band 8">
        <r>  0.0296  0.1082  0.0000 </r>
        <r>  0.0296  0.1082  0.0000 </r>
       </set>
       <set comment="band 9">
        <r>  0.0011  0.1390  0.0000 </r>
        <r>  0.0011  0.1390  0.0000 </r>
       </set>
       <set comment="band 10">
        <r>  0.0094  0.1143  0.0000 </r>
        <r>  0.0094  0.1143  0.0000 </r>
       </set>
       <set comment="band 11">
        <r>  0.0223  0.1066  0.0000 </r>
        <r>  0.0223  0.1066  0.0000 </r>
       </set>
       <set comment="band 12">
        <r>  0.0155  0.1149  0.0000 </r>
        <r>  0.0155  0.1149  0.0000 </r>
       </set>
       <set comment="band 13">
        <r>  0.0035  0.0360  0.0000 </r>
        <r>  0.0035  0.0360  0.0000 </r>
       </set>
       <set comment="band 14">
        <r>  0.0181  0.0146  0.0000 </r>
        <r>  0.0181  0.0146  0.0000 </r>
       </set>
       <set comment="band 15">
        <r>  0.0092  0.1116  0.0000 </r>
        <r>  0.0092  0.1116  0.0000 </r>
       </set>
       <set comment="band 16">
        <r>  0.0234  0.0296  0.0000 </r>
        <r>  0.0234  0.0296  0.0000 </r>
       </set>
       <set comment="band 17">
        <r>  0.0019  0.0932  0.0000 </r>
        <r>  0.0019  0.0932  0.0000 </r>
       </set>
       <set comment="band 18">
        <r>  0.0348  0.0165  0.0000 </r>
        <r>  0.0348  0.0165  0.0000 </r>
       </set>
       <set comment="band 19">
        <r>  0.0081  0.0641  0.0000 </r>
        <r>  0.0081  0.0641  0.0000 </r>
       </set>
       <set comment="band 20">
        <r>  0.0058  0.0774  0.0000 </r>
        <r>  0.0058  0.0774  0.0000 </r>
       </set>
       <set comment="band 21">
        <r>  0.0157  0.0500  0.0000 </r>
        <r>  0.0157  0.0500  0.0000 </r>
       </set>
       <set comment="band 22">
        <r>  0.0001  0.0330  0.0000 </r>
        <r>  0.0001  0.0330  0.0000 </r>
       </set>
       <set comment="band 23">
        <r>  0.0014  0.0500  0.0000 </r>
        <r>  0.0014  0.0500  0.0000 </r>
       </set>
       <set comment="band 24">
        <r>  0.0011  0.0139  0.0000 </r>
        <r>  0.0011  0.0139  0.0000 </r>
       </set>
      </set>
      <set comment="kpoint 410">
       <set comment="band 1">
        <r>  0.2079  0.0382  0.0000 </r>
        <r>  0.2079  0.0382  0.0000 </r>
       </set>
       <set comment="band 2">
        <r>  0.1999  0.0469  0.0000 </r>
        <r>  0.1999  0.0469  0.0000 </r>
       </set>
       <set comment="band 3">
        <r>  0.0007  0.1589  0.0000 </r>
        <r>  0.0007  0.1589  0.0000 </r>
       </set>
       <set comment="band 4">
        <r>  0.0005  0.1648  0.0000 </r>
        <r>  0.0005  0.1648  0.0000 </r>
       </set>
       <set comment="band 5">
        <r>  0.0194  0.0857  0.0000 </r>
        <r>  0.0194  0.0857  0.0000 </r>
       </set>
       <set comment="band 6">
        <r>  0.0062  0.0869  0.0000 </r>
        <r>  0.0062  0.0869  0.0000 </r>
       </set>
       <set comment="band 7">
        <r>  0.0562  0.1012  0.0000 </r>
        <r>  0.0562  0.1012  0.0000 </r>
       </set>
       <set comment="band 8">
        <r>  0.0407  0.1050  0.0000 </r>
        <r>  0.0407  0.1050  0.0000 </r>
       </set>
       <set comment="band 9">
        <r>  0.0022  0.1368  0.0000 </r>
        <r>  0.0022  0.1368  0.0000 </r>
       </set>
       <set comment="band 10">
        <r>  0.0019  0.1241  0.0000 </r>
        <r>  0.0019  0.1241  0.0000 </r>
       </set>
       <set comment="band 11">
        <r>  0.0272  0.1050  0.0000 </r>
        <r>  0.0272  0.1050  0.0000 </r>
       </set>
       <set comment="band 12">
        <r>  0.0191  0.1126  0.0000 </r>
        <r>  0.0191  0.1126  0.0000 </r>
       </set>
       <set comment="band 13">
        <r>  0.0043  0.0288  0.0000 </r>
        <r>  0.0043  0.0288  0.0000 </r>
       </set>
       <set comment="band 14">
        <r>  0.0026  0.0225  0.0000 </r>
        <r>  0.0026  0.0225  0.0000 </r>
       </set>
       <set comment="band 15">
        <r>  0.0103  0.1011  0.0000 </r>
        <r>  0.0103  0.1011  0.0000 </r>
       </set>
       <set comment="band 16">
        <r>  0.0245  0.0438  0.0000 </r>
        <r>  0.0245  0.0438  0.0000 </r>
       </set>
       <set comment="band 17">
        <r>  0.0046  0.1186  0.0000 </r>
        <r>  0.0046  0.1186  0.0000 </r>
       </set>
       <set comment="band 18">
        <r>  0.0233  0.0320  0.0000 </r>
        <r>  0.0233  0.0320  0.0000 </r>
       </set>
       <set comment="band 19">
        <r>  0.0270  0.0352  0.0000 </r>
        <r>  0.0270  0.0352  0.0000 </r>
       </set>
       <set comment="band 20">
        <r>  0.0108  0.0518  0.0000 </r>
        <r>  0.0108  0.0518  0.0000 </r>
       </set>
       <set comment="band 21">
        <r>  0.0027  0.0618  0.0000 </r>
        <r>  0.0027  0.0618  0.0000 </r>
       </set>
       <set comment="band 22">
        <r>  0.0021  0.0602  0.0000 </r>
        <r>  0.0021  0.0602  0.0000 </r>
       </set>
       <set comment="band 23">
        <r>  0.0006  0.0211  0.0000 </r>
        <r>  0.0006  0.0211  0.0000 </r>
       </set>
       <set comment="band 24">
        <r>  0.0004  0.0140  0.0000 </r>
        <r>  0.0004  0.0140  0.0000 </r>
       </set>
      </set>
      <set comment="kpoint 411">
       <set comment="band 1">
        <r>  0.2090  0.0366  0.0000 </r>
        <r>  0.2090  0.0366  0.0000 </r>
       </set>
       <set comment="band 2">
        <r>  0.1980  0.0488  0.0000 </r>
        <r>  0.1980  0.0488  0.0000 </r>
       </set>
       <set comment="band 3">
        <r>  0.0009  0.1577  0.0000 </r>
        <r>  0.0009  0.1577  0.0000 </r>
       </set>
       <set comment="band 4">
        <r>  0.0008  0.1659  0.0000 </r>
        <r>  0.0008  0.1659  0.0000 </r>
       </set>
       <set comment="band 5">
        <r>  0.0128  0.0862  0.0000 </r>
        <r>  0.0128  0.0862  0.0000 </r>
       </set>
       <set comment="band 6">
        <r>  0.0095  0.0919  0.0000 </r>
        <r>  0.0095  0.0919  0.0000 </r>
       </set>
       <set comment="band 7">
        <r>  0.0549  0.0936  0.0000 </r>
        <r>  0.0549  0.0936  0.0000 </r>
       </set>
       <set comment="band 8">
        <r>  0.0453  0.1071  0.0000 </r>
        <r>  0.0453  0.1071  0.0000 </r>
       </set>
       <set comment="band 9">
        <r>  0.0022  0.1394  0.0000 </r>
        <r>  0.0022  0.1394  0.0000 </r>
       </set>
       <set comment="band 10">
        <r>  0.0092  0.1138  0.0000 </r>
        <r>  0.0092  0.1138  0.0000 </r>
       </set>
       <set comment="band 11">
        <r>  0.0211  0.1116  0.0000 </r>
        <r>  0.0211  0.1116  0.0000 </r>
       </set>
       <set comment="band 12">
        <r>  0.0165  0.1150  0.0000 </r>
        <r>  0.0165  0.1150  0.0000 </r>
       </set>
       <set comment="band 13">
        <r>  0.0035  0.0308  0.0000 </r>
        <r>  0.0035  0.0308  0.0000 </r>
       </set>
       <set comment="band 14">
        <r>  0.0158  0.0107  0.0000 </r>
        <r>  0.0158  0.0107  0.0000 </r>
       </set>
       <set comment="band 15">
        <r>  0.0015  0.1418  0.0000 </r>
        <r>  0.0015  0.1418  0.0000 </r>
       </set>
       <set comment="band 16">
        <r>  0.0195  0.0374  0.0000 </r>
        <r>  0.0195  0.0374  0.0000 </r>
       </set>
       <set comment="band 17">
        <r>  0.0104  0.0426  0.0000 </r>
        <r>  0.0104  0.0426  0.0000 </r>
       </set>
       <set comment="band 18">
        <r>  0.0081  0.1182  0.0000 </r>
        <r>  0.0081  0.1182  0.0000 </r>
       </set>
       <set comment="band 19">
        <r>  0.0392  0.0132  0.0000 </r>
        <r>  0.0392  0.0132  0.0000 </r>
       </set>
       <set comment="band 20">
        <r>  0.0105  0.0380  0.0000 </r>
        <r>  0.0105  0.0380  0.0000 </r>
       </set>
       <set comment="band 21">
        <r>  0.0027  0.0619  0.0000 </r>
        <r>  0.0027  0.0619  0.0000 </r>
       </set>
       <set comment="band 22">
        <r>  0.0020  0.0588  0.0000 </r>
        <r>  0.0020  0.0588  0.0000 </r>
       </set>
       <set comment="band 23">
        <r>  0.0001  0.0217  0.0000 </r>
        <r>  0.0001  0.0217  0.0000 </r>
       </set>
       <set comment="band 24">
        <r>  0.0022  0.0141  0.0000 </r>
        <r>  0.0007  0.0179  0.0000 </r>
       </set>
      </set>
      <set comment="kpoint 412">
       <set comment="band 1">
        <r>  0.2039  0.0425  0.0000 </r>
        <r>  0.2039  0.0425  0.0000 </r>
       </set>
       <set comment="band 2">
        <r>  0.2039  0.0425  0.0000 </r>
        <r>  0.2039  0.0425  0.0000 </r>
       </set>
       <set comment="band 3">
        <r>  0.0006  0.1623  0.0000 </r>
        <r>  0.0006  0.1623  0.0000 </r>
       </set>
       <set comment="band 4">
        <r>  0.0006  0.1623  0.0000 </r>
        <r>  0.0006  0.1623  0.0000 </r>
       </set>
       <set comment="band 5">
        <r>  0.0239  0.0843  0.0000 </r>
        <r>  0.0239  0.0843  0.0000 </r>
       </set>
       <set comment="band 6">
        <r>  0.0239  0.0843  0.0000 </r>
        <r>  0.0239  0.0843  0.0000 </r>
       </set>
       <set comment="band 7">
        <r>  0.0373  0.1050  0.0000 </r>
        <r>  0.0373  0.1050  0.0000 </r>
       </set>
       <set comment="band 8">
        <r>  0.0373  0.1050  0.0000 </r>
        <r>  0.0373  0.1050  0.0000 </r>
       </set>
       <set comment="band 9">
        <r>  0.0000  0.1330  0.0000 </r>
        <r>  0.0000  0.1330  0.0000 </r>
       </set>
       <set comment="band 10">
        <r>  0.0000  0.1330  0.0000 </r>
        <r>  0.0000  0.1330  0.0000 </r>
       </set>
       <set comment="band 11">
        <r>  0.0258  0.1040  0.0000 </r>
        <r>  0.0258  0.1040  0.0000 </r>
       </set>
       <set comment="band 12">
        <r>  0.0258  0.1040  0.0000 </r>
        <r>  0.0258  0.1040  0.0000 </r>
       </set>
       <set comment="band 13">
        <r>  0.0000  0.0346  0.0000 </r>
        <r>  0.0000  0.0346  0.0000 </r>
       </set>
       <set comment="band 14">
        <r>  0.0000  0.0346  0.0000 </r>
        <r>  0.0000  0.0346  0.0000 </r>
       </set>
       <set comment="band 15">
        <r>  0.0014  0.1058  0.0000 </r>
        <r>  0.0014  0.1058  0.0000 </r>
       </set>
       <set comment="band 16">
        <r>  0.0014  0.1058  0.0000 </r>
        <r>  0.0014  0.1058  0.0000 </r>
       </set>
       <set comment="band 17">
        <r>  0.0412  0.0161  0.0000 </r>
        <r>  0.0412  0.0161  0.0000 </r>
       </set>
       <set comment="band 18">
        <r>  0.0412  0.0161  0.0000 </r>
        <r>  0.0412  0.0161  0.0000 </r>
       </set>
       <set comment="band 19">
        <r>  0.0102  0.0627  0.0000 </r>
        <r>  0.0102  0.0627  0.0000 </r>
       </set>
       <set comment="band 20">
        <r>  0.0102  0.0627  0.0000 </r>
        <r>  0.0102  0.0627  0.0000 </r>
       </set>
       <set comment="band 21">
        <r>  0.0047  0.0590  0.0000 </r>
        <r>  0.0047  0.0590  0.0000 </r>
       </set>
       <set comment="band 22">
        <r>  0.0047  0.0590  0.0000 </r>
        <r>  0.0047  0.0590  0.0000 </r>
       </set>
       <set comment="band 23">
        <r>  0.0009  0.0195  0.0000 </r>
        <r>  0.0009  0.0195  0.0000 </r>
       </set>
       <set comment="band 24">
        <r>  0.0009  0.0195  0.0000 </r>
        <r>  0.0009  0.0195  0.0000 </r>
       </set>
      </set>
      <set comment="kpoint 413">
       <set comment="band 1">
        <r>  0.2048  0.0423  0.0000 </r>
        <r>  0.2048  0.0423  0.0000 </r>
       </set>
       <set comment="band 2">
        <r>  0.2048  0.0423  0.0000 </r>
        <r>  0.2048  0.0423  0.0000 </r>
       </set>
       <set comment="band 3">
        <r>  0.0000  0.1613  0.0000 </r>
        <r>  0.0000  0.1613  0.0000 </r>
       </set>
       <set comment="band 4">
        <r>  0.0000  0.1613  0.0000 </r>
        <r>  0.0000  0.1613  0.0000 </r>
       </set>
       <set comment="band 5">
        <r>  0.0000  0.0863  0.0000 </r>
        <r>  0.0000  0.0863  0.0000 </r>
       </set>
       <set comment="band 6">
        <r>  0.0000  0.0863  0.0000 </r>
        <r>  0.0000  0.0863  0.0000 </r>
       </set>
       <set comment="band 7">
        <r>  0.0614  0.1034  0.0000 </r>
        <r>  0.0614  0.1034  0.0000 </r>
       </set>
       <set comment="band 8">
        <r>  0.0614  0.1034  0.0000 </r>
        <r>  0.0614  0.1034  0.0000 </r>
       </set>
       <set comment="band 9">
        <r>  0.0000  0.1337  0.0000 </r>
        <r>  0.0000  0.1337  0.0000 </r>
       </set>
       <set comment="band 10">
        <r>  0.0000  0.1337  0.0000 </r>
        <r>  0.0000  0.1337  0.0000 </r>
       </set>
       <set comment="band 11">
        <r>  0.0260  0.1056  0.0000 </r>
        <r>  0.0260  0.1056  0.0000 </r>
       </set>
       <set comment="band 12">
        <r>  0.0260  0.1056  0.0000 </r>
        <r>  0.0260  0.1056  0.0000 </r>
       </set>
       <set comment="band 13">
        <r>  0.0000  0.0289  0.0000 </r>
        <r>  0.0000  0.0289  0.0000 </r>
       </set>
       <set comment="band 14">
        <r>  0.0000  0.0289  0.0000 </r>
        <r>  0.0000  0.0289  0.0000 </r>
       </set>
       <set comment="band 15">
        <r>  0.0289  0.0238  0.0000 </r>
        <r>  0.0289  0.0238  0.0000 </r>
       </set>
       <set comment="band 16">
        <r>  0.0289  0.0238  0.0000 </r>
        <r>  0.0289  0.0238  0.0000 </r>
       </set>
       <set comment="band 17">
        <r>  0.0000  0.1425  0.0000 </r>
        <r>  0.0000  0.1425  0.0000 </r>
       </set>
       <set comment="band 18">
        <r>  0.0000  0.1425  0.0000 </r>
        <r>  0.0000  0.1425  0.0000 </r>
       </set>
       <set comment="band 19">
        <r>  0.0248  0.0215  0.0000 </r>
        <r>  0.0248  0.0215  0.0000 </r>
       </set>
       <set comment="band 20">
        <r>  0.0248  0.0215  0.0000 </r>
        <r>  0.0248  0.0215  0.0000 </r>
       </set>
       <set comment="band 21">
        <r>  0.0000  0.0648  0.0000 </r>
        <r>  0.0000  0.0648  0.0000 </r>
       </set>
       <set comment="band 22">
        <r>  0.0000  0.0648  0.0000 </r>
        <r>  0.0000  0.0648  0.0000 </r>
       </set>
       <set comment="band 23">
        <r>  0.0001  0.0001  0.0000 </r>
        <r>  0.0001  0.0001  0.0000 </r>
       </set>
       <set comment="band 24">
        <r>  0.0001  0.0001  0.0000 </r>
        <r>  0.0001  0.0001  0.0000 </r>
       </set>
      </set>
     </set>
    </set>
   </array>
  </projected>
 </calculation>
 <structure name="finalpos" >
  <crystal>
   <varray name="basis" >
    <v>       3.32548900       0.00000000       1.91997200 </v>
    <v>       1.10849600       3.13530100       1.91997200 </v>
    <v>       0.00000000       0.00000000       3.83994300 </v>
   </varray>
   <i name="volume">     40.03681621 </i>
   <varray name="rec_basis" >
    <v>       0.30070766      -0.10631618       0.00000000 </v>
    <v>       0.00000000       0.31894864       0.00000000 </v>
    <v>      -0.15035387      -0.10631626       0.26042053 </v>
   </varray>
  </crystal>
  <varray name="positions" >
   <v>       0.87500000       0.87500000       0.87500000 </v>
   <v>       0.12500000       0.12500000       0.12500000 </v>
  </varray>
 </structure>
</modeling>
